# vtk DataFile Version 2.0
Exact distance
ASCII

DATASET UNSTRUCTURED_GRID
POINTS 3 double
-0.5 0 0
0.5 0 0
0 1 0

CELLS 1 4
 3 0 1 2

CELL_TYPES 1
5

POINT_DATA 3
SCALARS field double
LOOKUP_TABLE default
0.2
0.2
1